4
	Energy:       0.0541621
C         -1.74978       -0.07878        0.00000
O         -2.17803        1.06854       -0.00000
H         -2.41373       -0.95386       -0.08456
H         -0.67484       -0.30479        0.08456
