3
	Energy:     200.8497630
C          0.00000        0.00000        0.00000
O         -1.19700        0.00000        0.00000
O          1.19700        0.00000        0.00000
